ITEM: TIMESTEP
0
ITEM: NUMBER OF ATOMS
1770
ITEM: BOX BOUNDS xy xz yz pp pp pp
-31.635 192.975 1.124
-6.124 12.713 -31.635
0.000 181.594 -6.124
ITEM: ATOMS id mol type q xu yu zu
1 1 1 0.00 -6.515807 -30.134502 45.458464
2 1 1 0.00 -2.682838 -23.778148 45.458474
3 1 1 0.00 -7.640115 -34.576192 51.519593
4 1 1 0.00 -3.807146 -28.219838 51.519603
5 1 1 0.00 -8.764423 -39.017882 57.580722
6 1 1 0.00 -4.931455 -32.661528 57.580733
7 1 1 0.00 -9.888731 -43.459573 63.641852
8 1 1 0.00 -6.055763 -37.103219 63.641862
9 1 1 0.00 -11.013039 -47.901263 69.702981
10 1 1 0.00 -7.180071 -41.544909 69.702991
11 1 1 0.00 -12.137347 -52.342953 75.764110
12 1 1 0.00 -8.304379 -45.986599 75.764120
13 1 1 0.00 -13.261655 -56.784644 81.825239
14 1 1 0.00 -9.428687 -50.428289 81.825250
15 1 1 0.00 -14.385963 -61.226334 87.886368
16 1 1 0.00 -10.552995 -54.869980 87.886379
17 1 1 0.00 -15.510271 -65.668024 93.947498
18 1 1 0.00 -11.677303 -59.311670 93.947508
19 1 1 0.00 -16.634579 -70.109715 100.008627
20 1 1 0.00 -12.801611 -63.753360 100.008637
21 1 1 0.00 -17.758887 -74.551405 106.069756
22 1 1 0.00 -13.925919 -68.195051 106.069766
23 1 1 0.00 -18.883195 -78.993095 112.130885
24 1 1 0.00 -15.050227 -72.636741 112.130896
25 1 1 0.00 -20.007503 -83.434785 118.192014
26 1 1 0.00 -16.174535 -77.078431 118.192025
27 1 1 0.00 -21.131811 -87.876476 124.253144
28 1 1 0.00 -17.298843 -81.520122 124.253154
29 1 1 0.00 -22.256119 -92.318166 130.314273
30 1 1 0.00 -18.423151 -85.961812 130.314283
31 1 1 0.00 7.896016 0.957330 3.030559
32 1 1 0.00 11.728985 7.313685 3.030570
33 1 1 0.00 6.771708 -3.484360 9.091689
34 1 1 0.00 10.604677 2.871994 9.091699
35 1 1 0.00 5.647400 -7.926050 15.152818
36 1 1 0.00 9.480369 -1.569696 15.152828
37 1 1 0.00 4.523092 -12.367740 21.213947
38 1 1 0.00 8.356061 -6.011386 21.213957
39 1 1 0.00 3.398784 -16.809431 27.275076
40 1 1 0.00 7.231753 -10.453077 27.275087
41 1 1 0.00 2.274476 -21.251121 33.336205
42 1 1 0.00 6.107445 -14.894767 33.336216
43 1 1 0.00 1.150168 -25.692811 39.397335
44 1 1 0.00 4.983137 -19.336457 39.397345
45 1 1 0.00 0.025860 -30.134502 45.458464
46 1 1 0.00 3.858829 -23.778148 45.458474
47 1 1 0.00 -1.098448 -34.576192 51.519593
48 1 1 0.00 2.734521 -28.219838 51.519603
49 1 1 0.00 -2.222756 -39.017882 57.580722
50 1 1 0.00 1.610212 -32.661528 57.580733
51 1 1 0.00 -3.347064 -43.459573 63.641852
52 1 1 0.00 0.485904 -37.103219 63.641862
53 1 1 0.00 -4.471372 -47.901263 69.702981
54 1 1 0.00 -0.638404 -41.544909 69.702991
55 1 1 0.00 -5.595680 -52.342953 75.764110
56 1 1 0.00 -1.762712 -45.986599 75.764120
57 1 1 0.00 -6.719988 -56.784644 81.825239
58 1 1 0.00 -2.887020 -50.428289 81.825250
59 1 1 0.00 -7.844296 -61.226334 87.886368
60 1 1 0.00 -4.011328 -54.869980 87.886379
61 1 1 0.00 -8.968604 -65.668024 93.947498
62 1 1 0.00 -5.135636 -59.311670 93.947508
63 1 1 0.00 -10.092912 -70.109715 100.008627
64 1 1 0.00 -6.259944 -63.753360 100.008637
65 1 1 0.00 -11.217220 -74.551405 106.069756
66 1 1 0.00 -7.384252 -68.195051 106.069766
67 1 1 0.00 -12.341528 -78.993095 112.130885
68 1 1 0.00 -8.508560 -72.636741 112.130896
69 1 1 0.00 -13.465836 -83.434785 118.192014
70 1 1 0.00 -9.632868 -77.078431 118.192025
71 1 1 0.00 -14.590144 -87.876476 124.253144
72 1 1 0.00 -10.757176 -81.520122 124.253154
73 1 1 0.00 -15.714452 -92.318166 130.314273
74 1 1 0.00 -11.881484 -85.961812 130.314283
75 1 1 0.00 -16.838760 -96.759856 136.375402
76 1 1 0.00 -13.005792 -90.403502 136.375412
77 1 1 0.00 -17.963068 -101.201547 142.436531
78 1 1 0.00 -14.130100 -94.845193 142.436542
79 1 1 0.00 -19.087376 -105.643237 148.497660
80 1 1 0.00 -15.254408 -99.286883 148.497671
81 1 1 0.00 -20.211684 -110.084927 154.558790
82 1 1 0.00 -16.378716 -103.728573 154.558800
83 1 1 0.00 -21.335992 -114.526618 160.619919
84 1 1 0.00 -17.503024 -108.170263 160.619929
85 1 1 0.00 -22.460300 -118.968308 166.681048
86 1 1 0.00 -18.627332 -112.611954 166.681058
87 1 1 0.00 -23.584608 -123.409998 172.742177
88 1 1 0.00 -19.751640 -117.053644 172.742188
89 1 1 0.00 -24.708916 -127.851689 178.803307
90 1 1 0.00 -20.875948 -121.495334 178.803317
91 1 1 0.00 14.437683 0.957330 3.030559
92 1 1 0.00 18.270652 7.313685 3.030570
93 1 1 0.00 13.313375 -3.484360 9.091689
94 1 1 0.00 17.146344 2.871994 9.091699
95 1 1 0.00 12.189067 -7.926050 15.152818
96 1 1 0.00 16.022036 -1.569696 15.152828
97 1 1 0.00 11.064759 -12.367740 21.213947
98 1 1 0.00 14.897728 -6.011386 21.213957
99 1 1 0.00 9.940451 -16.809431 27.275076
100 1 1 0.00 13.773420 -10.453077 27.275087
101 1 1 0.00 8.816143 -21.251121 33.336205
102 1 1 0.00 12.649112 -14.894767 33.336216
103 1 1 0.00 7.691835 -25.692811 39.397335
104 1 1 0.00 11.524804 -19.336457 39.397345
105 1 1 0.00 6.567527 -30.134502 45.458464
106 1 1 0.00 10.400496 -23.778148 45.458474
107 1 1 0.00 5.443219 -34.576192 51.519593
108 1 1 0.00 9.276188 -28.219838 51.519603
109 1 1 0.00 4.318911 -39.017882 57.580722
110 1 1 0.00 8.151879 -32.661528 57.580733
111 1 1 0.00 3.194603 -43.459573 63.641852
112 1 1 0.00 7.027571 -37.103219 63.641862
113 1 1 0.00 2.070295 -47.901263 69.702981
114 1 1 0.00 5.903263 -41.544909 69.702991
115 1 1 0.00 0.945987 -52.342953 75.764110
116 1 1 0.00 4.778955 -45.986599 75.764120
117 1 1 0.00 -0.178321 -56.784644 81.825239
118 1 1 0.00 3.654647 -50.428289 81.825250
119 1 1 0.00 -1.302629 -61.226334 87.886368
120 1 1 0.00 2.530339 -54.869980 87.886379
121 1 1 0.00 -2.426937 -65.668024 93.947498
122 1 1 0.00 1.406031 -59.311670 93.947508
123 1 1 0.00 -3.551245 -70.109715 100.008627
124 1 1 0.00 0.281723 -63.753360 100.008637
125 1 1 0.00 -4.675553 -74.551405 106.069756
126 1 1 0.00 -0.842585 -68.195051 106.069766
127 1 1 0.00 -5.799861 -78.993095 112.130885
128 1 1 0.00 -1.966893 -72.636741 112.130896
129 1 1 0.00 -6.924169 -83.434785 118.192014
130 1 1 0.00 -3.091201 -77.078431 118.192025
131 1 1 0.00 -8.048477 -87.876476 124.253144
132 1 1 0.00 -4.215509 -81.520122 124.253154
133 1 1 0.00 -9.172785 -92.318166 130.314273
134 1 1 0.00 -5.339817 -85.961812 130.314283
135 1 1 0.00 -10.297093 -96.759856 136.375402
136 1 1 0.00 -6.464125 -90.403502 136.375412
137 1 1 0.00 -11.421401 -101.201547 142.436531
138 1 1 0.00 -7.588433 -94.845193 142.436542
139 1 1 0.00 -12.545709 -105.643237 148.497660
140 1 1 0.00 -8.712741 -99.286883 148.497671
141 1 1 0.00 -13.670017 -110.084927 154.558790
142 1 1 0.00 -9.837049 -103.728573 154.558800
143 1 1 0.00 -14.794325 -114.526618 160.619919
144 1 1 0.00 -10.961357 -108.170263 160.619929
145 1 1 0.00 -15.918633 -118.968308 166.681048
146 1 1 0.00 -12.085665 -112.611954 166.681058
147 1 1 0.00 -17.042941 -123.409998 172.742177
148 1 1 0.00 -13.209973 -117.053644 172.742188
149 1 1 0.00 -18.167249 -127.851689 178.803307
150 1 1 0.00 -14.334281 -121.495334 178.803317
151 1 1 0.00 20.979350 0.957330 3.030559
152 1 1 0.00 24.812319 7.313685 3.030570
153 1 1 0.00 19.855042 -3.484360 9.091689
154 1 1 0.00 23.688011 2.871994 9.091699
155 1 1 0.00 18.730734 -7.926050 15.152818
156 1 1 0.00 22.563703 -1.569696 15.152828
157 1 1 0.00 17.606426 -12.367740 21.213947
158 1 1 0.00 21.439395 -6.011386 21.213957
159 1 1 0.00 16.482118 -16.809431 27.275076
160 1 1 0.00 20.315087 -10.453077 27.275087
161 1 1 0.00 15.357810 -21.251121 33.336205
162 1 1 0.00 19.190779 -14.894767 33.336216
163 1 1 0.00 14.233502 -25.692811 39.397335
164 1 1 0.00 18.066471 -19.336457 39.397345
165 1 1 0.00 13.109194 -30.134502 45.458464
166 1 1 0.00 16.942163 -23.778148 45.458474
167 1 1 0.00 11.984886 -34.576192 51.519593
168 1 1 0.00 15.817855 -28.219838 51.519603
169 1 1 0.00 10.860578 -39.017882 57.580722
170 1 1 0.00 14.693546 -32.661528 57.580733
171 1 1 0.00 9.736270 -43.459573 63.641852
172 1 1 0.00 13.569238 -37.103219 63.641862
173 1 1 0.00 8.611962 -47.901263 69.702981
174 1 1 0.00 12.444930 -41.544909 69.702991
175 1 1 0.00 7.487654 -52.342953 75.764110
176 1 1 0.00 11.320622 -45.986599 75.764120
177 1 1 0.00 6.363346 -56.784644 81.825239
178 1 1 0.00 10.196314 -50.428289 81.825250
179 1 1 0.00 5.239038 -61.226334 87.886368
180 1 1 0.00 9.072006 -54.869980 87.886379
181 1 1 0.00 4.114730 -65.668024 93.947498
182 1 1 0.00 7.947698 -59.311670 93.947508
183 1 1 0.00 2.990422 -70.109715 100.008627
184 1 1 0.00 6.823390 -63.753360 100.008637
185 1 1 0.00 1.866114 -74.551405 106.069756
186 1 1 0.00 5.699082 -68.195051 106.069766
187 1 1 0.00 0.741806 -78.993095 112.130885
188 1 1 0.00 4.574774 -72.636741 112.130896
189 1 1 0.00 -0.382502 -83.434785 118.192014
190 1 1 0.00 3.450466 -77.078431 118.192025
191 1 1 0.00 -1.506810 -87.876476 124.253144
192 1 1 0.00 2.326158 -81.520122 124.253154
193 1 1 0.00 -2.631118 -92.318166 130.314273
194 1 1 0.00 1.201850 -85.961812 130.314283
195 1 1 0.00 -3.755426 -96.759856 136.375402
196 1 1 0.00 0.077542 -90.403502 136.375412
197 1 1 0.00 -4.879734 -101.201547 142.436531
198 1 1 0.00 -1.046766 -94.845193 142.436542
199 1 1 0.00 -6.004042 -105.643237 148.497660
200 1 1 0.00 -2.171074 -99.286883 148.497671
201 1 1 0.00 -7.128350 -110.084927 154.558790
202 1 1 0.00 -3.295382 -103.728573 154.558800
203 1 1 0.00 -8.252658 -114.526618 160.619919
204 1 1 0.00 -4.419690 -108.170263 160.619929
205 1 1 0.00 -9.376966 -118.968308 166.681048
206 1 1 0.00 -5.543998 -112.611954 166.681058
207 1 1 0.00 -10.501274 -123.409998 172.742177
208 1 1 0.00 -6.668306 -117.053644 172.742188
209 1 1 0.00 -11.625582 -127.851689 178.803307
210 1 1 0.00 -7.792614 -121.495334 178.803317
211 1 1 0.00 27.521017 0.957330 3.030559
212 1 1 0.00 31.353986 7.313685 3.030570
213 1 1 0.00 26.396709 -3.484360 9.091689
214 1 1 0.00 30.229678 2.871994 9.091699
215 1 1 0.00 25.272401 -7.926050 15.152818
216 1 1 0.00 29.105370 -1.569696 15.152828
217 1 1 0.00 24.148093 -12.367740 21.213947
218 1 1 0.00 27.981062 -6.011386 21.213957
219 1 1 0.00 23.023785 -16.809431 27.275076
220 1 1 0.00 26.856754 -10.453077 27.275087
221 1 1 0.00 21.899477 -21.251121 33.336205
222 1 1 0.00 25.732446 -14.894767 33.336216
223 1 1 0.00 20.775169 -25.692811 39.397335
224 1 1 0.00 24.608138 -19.336457 39.397345
225 1 1 0.00 19.650861 -30.134502 45.458464
226 1 1 0.00 23.483830 -23.778148 45.458474
227 1 1 0.00 18.526553 -34.576192 51.519593
228 1 1 0.00 22.359522 -28.219838 51.519603
229 1 1 0.00 17.402245 -39.017882 57.580722
230 1 1 0.00 21.235213 -32.661528 57.580733
231 1 1 0.00 16.277937 -43.459573 63.641852
232 1 1 0.00 20.110905 -37.103219 63.641862
233 1 1 0.00 15.153629 -47.901263 69.702981
234 1 1 0.00 18.986597 -41.544909 69.702991
235 1 1 0.00 14.029321 -52.342953 75.764110
236 1 1 0.00 17.862289 -45.986599 75.764120
237 1 1 0.00 12.905013 -56.784644 81.825239
238 1 1 0.00 16.737981 -50.428289 81.825250
239 1 1 0.00 11.780705 -61.226334 87.886368
240 1 1 0.00 15.613673 -54.869980 87.886379
241 1 1 0.00 10.656397 -65.668024 93.947498
242 1 1 0.00 14.489365 -59.311670 93.947508
243 1 1 0.00 9.532089 -70.109715 100.008627
244 1 1 0.00 13.365057 -63.753360 100.008637
245 1 1 0.00 8.407781 -74.551405 106.069756
246 1 1 0.00 12.240749 -68.195051 106.069766
247 1 1 0.00 7.283473 -78.993095 112.130885
248 1 1 0.00 11.116441 -72.636741 112.130896
249 1 1 0.00 6.159165 -83.434785 118.192014
250 1 1 0.00 9.992133 -77.078431 118.192025
251 1 1 0.00 5.034857 -87.876476 124.253144
252 1 1 0.00 8.867825 -81.520122 124.253154
253 1 1 0.00 3.910549 -92.318166 130.314273
254 1 1 0.00 7.743517 -85.961812 130.314283
255 1 1 0.00 2.786241 -96.759856 136.375402
256 1 1 0.00 6.619209 -90.403502 136.375412
257 1 1 0.00 1.661933 -101.201547 142.436531
258 1 1 0.00 5.494901 -94.845193 142.436542
259 1 1 0.00 0.537625 -105.643237 148.497660
260 1 1 0.00 4.370593 -99.286883 148.497671
261 1 1 0.00 -0.586683 -110.084927 154.558790
262 1 1 0.00 3.246285 -103.728573 154.558800
263 1 1 0.00 -1.710991 -114.526618 160.619919
264 1 1 0.00 2.121977 -108.170263 160.619929
265 1 1 0.00 -2.835299 -118.968308 166.681048
266 1 1 0.00 0.997669 -112.611954 166.681058
267 1 1 0.00 -3.959607 -123.409998 172.742177
268 1 1 0.00 -0.126639 -117.053644 172.742188
269 1 1 0.00 -5.083915 -127.851689 178.803307
270 1 1 0.00 -1.250947 -121.495334 178.803317
271 1 1 0.00 34.062684 0.957330 3.030559
272 1 1 0.00 37.895653 7.313685 3.030570
273 1 1 0.00 32.938376 -3.484360 9.091689
274 1 1 0.00 36.771345 2.871994 9.091699
275 1 1 0.00 31.814068 -7.926050 15.152818
276 1 1 0.00 35.647037 -1.569696 15.152828
277 1 1 0.00 30.689760 -12.367740 21.213947
278 1 1 0.00 34.522729 -6.011386 21.213957
279 1 1 0.00 29.565452 -16.809431 27.275076
280 1 1 0.00 33.398421 -10.453077 27.275087
281 1 1 0.00 28.441144 -21.251121 33.336205
282 1 1 0.00 32.274113 -14.894767 33.336216
283 1 1 0.00 27.316836 -25.692811 39.397335
284 1 1 0.00 31.149805 -19.336457 39.397345
285 1 1 0.00 26.192528 -30.134502 45.458464
286 1 1 0.00 30.025497 -23.778148 45.458474
287 1 1 0.00 25.068220 -34.576192 51.519593
288 1 1 0.00 28.901189 -28.219838 51.519603
289 1 1 0.00 23.943912 -39.017882 57.580722
290 1 1 0.00 27.776880 -32.661528 57.580733
291 1 1 0.00 22.819604 -43.459573 63.641852
292 1 1 0.00 26.652572 -37.103219 63.641862
293 1 1 0.00 21.695296 -47.901263 69.702981
294 1 1 0.00 25.528264 -41.544909 69.702991
295 1 1 0.00 20.570988 -52.342953 75.764110
296 1 1 0.00 24.403956 -45.986599 75.764120
297 1 1 0.00 19.446680 -56.784644 81.825239
298 1 1 0.00 23.279648 -50.428289 81.825250
299 1 1 0.00 18.322372 -61.226334 87.886368
300 1 1 0.00 22.155340 -54.869980 87.886379
301 1 1 0.00 17.198064 -65.668024 93.947498
302 1 1 0.00 21.031032 -59.311670 93.947508
303 1 1 0.00 16.073756 -70.109715 100.008627
304 1 1 0.00 19.906724 -63.753360 100.008637
305 1 1 0.00 14.949448 -74.551405 106.069756
306 1 1 0.00 18.782416 -68.195051 106.069766
307 1 1 0.00 13.825140 -78.993095 112.130885
308 1 1 0.00 17.658108 -72.636741 112.130896
309 1 1 0.00 12.700832 -83.434785 118.192014
310 1 1 0.00 16.533800 -77.078431 118.192025
311 1 1 0.00 11.576524 -87.876476 124.253144
312 1 1 0.00 15.409492 -81.520122 124.253154
313 1 1 0.00 10.452216 -92.318166 130.314273
314 1 1 0.00 14.285184 -85.961812 130.314283
315 1 1 0.00 9.327908 -96.759856 136.375402
316 1 1 0.00 13.160876 -90.403502 136.375412
317 1 1 0.00 8.203600 -101.201547 142.436531
318 1 1 0.00 12.036568 -94.845193 142.436542
319 1 1 0.00 7.079292 -105.643237 148.497660
320 1 1 0.00 10.912260 -99.286883 148.497671
321 1 1 0.00 5.954984 -110.084927 154.558790
322 1 1 0.00 9.787952 -103.728573 154.558800
323 1 1 0.00 4.830676 -114.526618 160.619919
324 1 1 0.00 8.663644 -108.170263 160.619929
325 1 1 0.00 3.706368 -118.968308 166.681048
326 1 1 0.00 7.539336 -112.611954 166.681058
327 1 1 0.00 2.582060 -123.409998 172.742177
328 1 1 0.00 6.415028 -117.053644 172.742188
329 1 1 0.00 1.457752 -127.851689 178.803307
330 1 1 0.00 5.290720 -121.495334 178.803317
331 1 1 0.00 40.604351 0.957330 3.030559
332 1 1 0.00 44.437320 7.313685 3.030570
333 1 1 0.00 39.480043 -3.484360 9.091689
334 1 1 0.00 43.313012 2.871994 9.091699
335 1 1 0.00 38.355735 -7.926050 15.152818
336 1 1 0.00 42.188704 -1.569696 15.152828
337 1 1 0.00 37.231427 -12.367740 21.213947
338 1 1 0.00 41.064396 -6.011386 21.213957
339 1 1 0.00 36.107119 -16.809431 27.275076
340 1 1 0.00 39.940088 -10.453077 27.275087
341 1 1 0.00 34.982811 -21.251121 33.336205
342 1 1 0.00 38.815780 -14.894767 33.336216
343 1 1 0.00 33.858503 -25.692811 39.397335
344 1 1 0.00 37.691472 -19.336457 39.397345
345 1 1 0.00 32.734195 -30.134502 45.458464
346 1 1 0.00 36.567164 -23.778148 45.458474
347 1 1 0.00 31.609887 -34.576192 51.519593
348 1 1 0.00 35.442856 -28.219838 51.519603
349 1 1 0.00 30.485579 -39.017882 57.580722
350 1 1 0.00 34.318547 -32.661528 57.580733
351 1 1 0.00 29.361271 -43.459573 63.641852
352 1 1 0.00 33.194239 -37.103219 63.641862
353 1 1 0.00 28.236963 -47.901263 69.702981
354 1 1 0.00 32.069931 -41.544909 69.702991
355 1 1 0.00 27.112655 -52.342953 75.764110
356 1 1 0.00 30.945623 -45.986599 75.764120
357 1 1 0.00 25.988347 -56.784644 81.825239
358 1 1 0.00 29.821315 -50.428289 81.825250
359 1 1 0.00 24.864039 -61.226334 87.886368
360 1 1 0.00 28.697007 -54.869980 87.886379
361 1 1 0.00 23.739731 -65.668024 93.947498
362 1 1 0.00 27.572699 -59.311670 93.947508
363 1 1 0.00 22.615423 -70.109715 100.008627
364 1 1 0.00 26.448391 -63.753360 100.008637
365 1 1 0.00 21.491115 -74.551405 106.069756
366 1 1 0.00 25.324083 -68.195051 106.069766
367 1 1 0.00 20.366807 -78.993095 112.130885
368 1 1 0.00 24.199775 -72.636741 112.130896
369 1 1 0.00 19.242499 -83.434785 118.192014
370 1 1 0.00 23.075467 -77.078431 118.192025
371 1 1 0.00 18.118191 -87.876476 124.253144
372 1 1 0.00 21.951159 -81.520122 124.253154
373 1 1 0.00 16.993883 -92.318166 130.314273
374 1 1 0.00 20.826851 -85.961812 130.314283
375 1 1 0.00 15.869575 -96.759856 136.375402
376 1 1 0.00 19.702543 -90.403502 136.375412
377 1 1 0.00 14.745267 -101.201547 142.436531
378 1 1 0.00 18.578235 -94.845193 142.436542
379 1 1 0.00 13.620959 -105.643237 148.497660
380 1 1 0.00 17.453927 -99.286883 148.497671
381 1 1 0.00 12.496651 -110.084927 154.558790
382 1 1 0.00 16.329619 -103.728573 154.558800
383 1 1 0.00 11.372343 -114.526618 160.619919
384 1 1 0.00 15.205311 -108.170263 160.619929
385 1 1 0.00 10.248035 -118.968308 166.681048
386 1 1 0.00 14.081003 -112.611954 166.681058
387 1 1 0.00 9.123727 -123.409998 172.742177
388 1 1 0.00 12.956695 -117.053644 172.742188
389 1 1 0.00 7.999419 -127.851689 178.803307
390 1 1 0.00 11.832387 -121.495334 178.803317
391 1 1 0.00 47.146018 0.957330 3.030559
392 1 1 0.00 50.978987 7.313685 3.030570
393 1 1 0.00 46.021710 -3.484360 9.091689
394 1 1 0.00 49.854679 2.871994 9.091699
395 1 1 0.00 44.897402 -7.926050 15.152818
396 1 1 0.00 48.730371 -1.569696 15.152828
397 1 1 0.00 43.773094 -12.367740 21.213947
398 1 1 0.00 47.606063 -6.011386 21.213957
399 1 1 0.00 42.648786 -16.809431 27.275076
400 1 1 0.00 46.481755 -10.453077 27.275087
401 1 1 0.00 41.524478 -21.251121 33.336205
402 1 1 0.00 45.357447 -14.894767 33.336216
403 1 1 0.00 40.400170 -25.692811 39.397335
404 1 1 0.00 44.233139 -19.336457 39.397345
405 1 1 0.00 39.275862 -30.134502 45.458464
406 1 1 0.00 43.108831 -23.778148 45.458474
407 1 1 0.00 38.151554 -34.576192 51.519593
408 1 1 0.00 41.984523 -28.219838 51.519603
409 1 1 0.00 37.027246 -39.017882 57.580722
410 1 1 0.00 40.860214 -32.661528 57.580733
411 1 1 0.00 35.902938 -43.459573 63.641852
412 1 1 0.00 39.735906 -37.103219 63.641862
413 1 1 0.00 34.778630 -47.901263 69.702981
414 1 1 0.00 38.611598 -41.544909 69.702991
415 1 1 0.00 33.654322 -52.342953 75.764110
416 1 1 0.00 37.487290 -45.986599 75.764120
417 1 1 0.00 32.530014 -56.784644 81.825239
418 1 1 0.00 36.362982 -50.428289 81.825250
419 1 1 0.00 31.405706 -61.226334 87.886368
420 1 1 0.00 35.238674 -54.869980 87.886379
421 1 1 0.00 30.281398 -65.668024 93.947498
422 1 1 0.00 34.114366 -59.311670 93.947508
423 1 1 0.00 29.157090 -70.109715 100.008627
424 1 1 0.00 32.990058 -63.753360 100.008637
425 1 1 0.00 28.032782 -74.551405 106.069756
426 1 1 0.00 31.865750 -68.195051 106.069766
427 1 1 0.00 26.908474 -78.993095 112.130885
428 1 1 0.00 30.741442 -72.636741 112.130896
429 1 1 0.00 25.784166 -83.434785 118.192014
430 1 1 0.00 29.617134 -77.078431 118.192025
431 1 1 0.00 24.659858 -87.876476 124.253144
432 1 1 0.00 28.492826 -81.520122 124.253154
433 1 1 0.00 23.535550 -92.318166 130.314273
434 1 1 0.00 27.368518 -85.961812 130.314283
435 1 1 0.00 22.411242 -96.759856 136.375402
436 1 1 0.00 26.244210 -90.403502 136.375412
437 1 1 0.00 21.286934 -101.201547 142.436531
438 1 1 0.00 25.119902 -94.845193 142.436542
439 1 1 0.00 20.162626 -105.643237 148.497660
440 1 1 0.00 23.995594 -99.286883 148.497671
441 1 1 0.00 19.038318 -110.084927 154.558790
442 1 1 0.00 22.871286 -103.728573 154.558800
443 1 1 0.00 17.914010 -114.526618 160.619919
444 1 1 0.00 21.746978 -108.170263 160.619929
445 1 1 0.00 16.789702 -118.968308 166.681048
446 1 1 0.00 20.622670 -112.611954 166.681058
447 1 1 0.00 15.665394 -123.409998 172.742177
448 1 1 0.00 19.498362 -117.053644 172.742188
449 1 1 0.00 14.541086 -127.851689 178.803307
450 1 1 0.00 18.374054 -121.495334 178.803317
451 1 1 0.00 53.687685 0.957330 3.030559
452 1 1 0.00 57.520654 7.313685 3.030570
453 1 1 0.00 52.563377 -3.484360 9.091689
454 1 1 0.00 56.396346 2.871994 9.091699
455 1 1 0.00 51.439069 -7.926050 15.152818
456 1 1 0.00 55.272038 -1.569696 15.152828
457 1 1 0.00 50.314761 -12.367740 21.213947
458 1 1 0.00 54.147730 -6.011386 21.213957
459 1 1 0.00 49.190453 -16.809431 27.275076
460 1 1 0.00 53.023422 -10.453077 27.275087
461 1 1 0.00 48.066145 -21.251121 33.336205
462 1 1 0.00 51.899114 -14.894767 33.336216
463 1 1 0.00 46.941837 -25.692811 39.397335
464 1 1 0.00 50.774806 -19.336457 39.397345
465 1 1 0.00 45.817529 -30.134502 45.458464
466 1 1 0.00 49.650498 -23.778148 45.458474
467 1 1 0.00 44.693221 -34.576192 51.519593
468 1 1 0.00 48.526190 -28.219838 51.519603
469 1 1 0.00 43.568913 -39.017882 57.580722
470 1 1 0.00 47.401881 -32.661528 57.580733
471 1 1 0.00 42.444605 -43.459573 63.641852
472 1 1 0.00 46.277573 -37.103219 63.641862
473 1 1 0.00 41.320297 -47.901263 69.702981
474 1 1 0.00 45.153265 -41.544909 69.702991
475 1 1 0.00 40.195989 -52.342953 75.764110
476 1 1 0.00 44.028957 -45.986599 75.764120
477 1 1 0.00 39.071681 -56.784644 81.825239
478 1 1 0.00 42.904649 -50.428289 81.825250
479 1 1 0.00 37.947373 -61.226334 87.886368
480 1 1 0.00 41.780341 -54.869980 87.886379
481 1 1 0.00 36.823065 -65.668024 93.947498
482 1 1 0.00 40.656033 -59.311670 93.947508
483 1 1 0.00 35.698757 -70.109715 100.008627
484 1 1 0.00 39.531725 -63.753360 100.008637
485 1 1 0.00 34.574449 -74.551405 106.069756
486 1 1 0.00 38.407417 -68.195051 106.069766
487 1 1 0.00 33.450141 -78.993095 112.130885
488 1 1 0.00 37.283109 -72.636741 112.130896
489 1 1 0.00 32.325833 -83.434785 118.192014
490 1 1 0.00 36.158801 -77.078431 118.192025
491 1 1 0.00 31.201525 -87.876476 124.253144
492 1 1 0.00 35.034493 -81.520122 124.253154
493 1 1 0.00 30.077217 -92.318166 130.314273
494 1 1 0.00 33.910185 -85.961812 130.314283
495 1 1 0.00 28.952909 -96.759856 136.375402
496 1 1 0.00 32.785877 -90.403502 136.375412
497 1 1 0.00 27.828601 -101.201547 142.436531
498 1 1 0.00 31.661569 -94.845193 142.436542
499 1 1 0.00 26.704293 -105.643237 148.497660
500 1 1 0.00 30.537261 -99.286883 148.497671
501 1 1 0.00 25.579985 -110.084927 154.558790
502 1 1 0.00 29.412953 -103.728573 154.558800
503 1 1 0.00 24.455677 -114.526618 160.619919
504 1 1 0.00 28.288645 -108.170263 160.619929
505 1 1 0.00 23.331369 -118.968308 166.681048
506 1 1 0.00 27.164337 -112.611954 166.681058
507 1 1 0.00 22.207061 -123.409998 172.742177
508 1 1 0.00 26.040029 -117.053644 172.742188
509 1 1 0.00 21.082753 -127.851689 178.803307
510 1 1 0.00 24.915721 -121.495334 178.803317
511 1 1 0.00 60.229352 0.957330 3.030559
512 1 1 0.00 64.062321 7.313685 3.030570
513 1 1 0.00 59.105044 -3.484360 9.091689
514 1 1 0.00 62.938013 2.871994 9.091699
515 1 1 0.00 57.980736 -7.926050 15.152818
516 1 1 0.00 61.813705 -1.569696 15.152828
517 1 1 0.00 56.856428 -12.367740 21.213947
518 1 1 0.00 60.689397 -6.011386 21.213957
519 1 1 0.00 55.732120 -16.809431 27.275076
520 1 1 0.00 59.565089 -10.453077 27.275087
521 1 1 0.00 54.607812 -21.251121 33.336205
522 1 1 0.00 58.440781 -14.894767 33.336216
523 1 1 0.00 53.483504 -25.692811 39.397335
524 1 1 0.00 57.316473 -19.336457 39.397345
525 1 1 0.00 52.359196 -30.134502 45.458464
526 1 1 0.00 56.192165 -23.778148 45.458474
527 1 1 0.00 51.234888 -34.576192 51.519593
528 1 1 0.00 55.067857 -28.219838 51.519603
529 1 1 0.00 50.110580 -39.017882 57.580722
530 1 1 0.00 53.943548 -32.661528 57.580733
531 1 1 0.00 48.986272 -43.459573 63.641852
532 1 1 0.00 52.819240 -37.103219 63.641862
533 1 1 0.00 47.861964 -47.901263 69.702981
534 1 1 0.00 51.694932 -41.544909 69.702991
535 1 1 0.00 46.737656 -52.342953 75.764110
536 1 1 0.00 50.570624 -45.986599 75.764120
537 1 1 0.00 45.613348 -56.784644 81.825239
538 1 1 0.00 49.446316 -50.428289 81.825250
539 1 1 0.00 44.489040 -61.226334 87.886368
540 1 1 0.00 48.322008 -54.869980 87.886379
541 1 1 0.00 43.364732 -65.668024 93.947498
542 1 1 0.00 47.197700 -59.311670 93.947508
543 1 1 0.00 42.240424 -70.109715 100.008627
544 1 1 0.00 46.073392 -63.753360 100.008637
545 1 1 0.00 41.116116 -74.551405 106.069756
546 1 1 0.00 44.949084 -68.195051 106.069766
547 1 1 0.00 39.991808 -78.993095 112.130885
548 1 1 0.00 43.824776 -72.636741 112.130896
549 1 1 0.00 38.867500 -83.434785 118.192014
550 1 1 0.00 42.700468 -77.078431 118.192025
551 1 1 0.00 37.743192 -87.876476 124.253144
552 1 1 0.00 41.576160 -81.520122 124.253154
553 1 1 0.00 36.618884 -92.318166 130.314273
554 1 1 0.00 40.451852 -85.961812 130.314283
555 1 1 0.00 35.494576 -96.759856 136.375402
556 1 1 0.00 39.327544 -90.403502 136.375412
557 1 1 0.00 34.370268 -101.201547 142.436531
558 1 1 0.00 38.203236 -94.845193 142.436542
559 1 1 0.00 33.245960 -105.643237 148.497660
560 1 1 0.00 37.078928 -99.286883 148.497671
561 1 1 0.00 32.121652 -110.084927 154.558790
562 1 1 0.00 35.954620 -103.728573 154.558800
563 1 1 0.00 30.997344 -114.526618 160.619919
564 1 1 0.00 34.830312 -108.170263 160.619929
565 1 1 0.00 29.873036 -118.968308 166.681048
566 1 1 0.00 33.706004 -112.611954 166.681058
567 1 1 0.00 28.748728 -123.409998 172.742177
568 1 1 0.00 32.581696 -117.053644 172.742188
569 1 1 0.00 27.624420 -127.851689 178.803307
570 1 1 0.00 31.457388 -121.495334 178.803317
571 1 1 0.00 66.771019 0.957330 3.030559
572 1 1 0.00 70.603988 7.313685 3.030570
573 1 1 0.00 65.646711 -3.484360 9.091689
574 1 1 0.00 69.479680 2.871994 9.091699
575 1 1 0.00 64.522403 -7.926050 15.152818
576 1 1 0.00 68.355372 -1.569696 15.152828
577 1 1 0.00 63.398095 -12.367740 21.213947
578 1 1 0.00 67.231064 -6.011386 21.213957
579 1 1 0.00 62.273787 -16.809431 27.275076
580 1 1 0.00 66.106756 -10.453077 27.275087
581 1 1 0.00 61.149479 -21.251121 33.336205
582 1 1 0.00 64.982448 -14.894767 33.336216
583 1 1 0.00 60.025171 -25.692811 39.397335
584 1 1 0.00 63.858140 -19.336457 39.397345
585 1 1 0.00 58.900863 -30.134502 45.458464
586 1 1 0.00 62.733832 -23.778148 45.458474
587 1 1 0.00 57.776555 -34.576192 51.519593
588 1 1 0.00 61.609524 -28.219838 51.519603
589 1 1 0.00 56.652247 -39.017882 57.580722
590 1 1 0.00 60.485215 -32.661528 57.580733
591 1 1 0.00 55.527939 -43.459573 63.641852
592 1 1 0.00 59.360907 -37.103219 63.641862
593 1 1 0.00 54.403631 -47.901263 69.702981
594 1 1 0.00 58.236599 -41.544909 69.702991
595 1 1 0.00 53.279323 -52.342953 75.764110
596 1 1 0.00 57.112291 -45.986599 75.764120
597 1 1 0.00 52.155015 -56.784644 81.825239
598 1 1 0.00 55.987983 -50.428289 81.825250
599 1 1 0.00 51.030707 -61.226334 87.886368
600 1 1 0.00 54.863675 -54.869980 87.886379
601 1 1 0.00 49.906399 -65.668024 93.947498
602 1 1 0.00 53.739367 -59.311670 93.947508
603 1 1 0.00 48.782091 -70.109715 100.008627
604 1 1 0.00 52.615059 -63.753360 100.008637
605 1 1 0.00 47.657783 -74.551405 106.069756
606 1 1 0.00 51.490751 -68.195051 106.069766
607 1 1 0.00 46.533475 -78.993095 112.130885
608 1 1 0.00 50.366443 -72.636741 112.130896
609 1 1 0.00 45.409167 -83.434785 118.192014
610 1 1 0.00 49.242135 -77.078431 118.192025
611 1 1 0.00 44.284859 -87.876476 124.253144
612 1 1 0.00 48.117827 -81.520122 124.253154
613 1 1 0.00 43.160551 -92.318166 130.314273
614 1 1 0.00 46.993519 -85.961812 130.314283
615 1 1 0.00 42.036243 -96.759856 136.375402
616 1 1 0.00 45.869211 -90.403502 136.375412
617 1 1 0.00 40.911935 -101.201547 142.436531
618 1 1 0.00 44.744903 -94.845193 142.436542
619 1 1 0.00 39.787627 -105.643237 148.497660
620 1 1 0.00 43.620595 -99.286883 148.497671
621 1 1 0.00 38.663319 -110.084927 154.558790
622 1 1 0.00 42.496287 -103.728573 154.558800
623 1 1 0.00 37.539011 -114.526618 160.619919
624 1 1 0.00 41.371979 -108.170263 160.619929
625 1 1 0.00 36.414703 -118.968308 166.681048
626 1 1 0.00 40.247671 -112.611954 166.681058
627 1 1 0.00 35.290395 -123.409998 172.742177
628 1 1 0.00 39.123363 -117.053644 172.742188
629 1 1 0.00 34.166087 -127.851689 178.803307
630 1 1 0.00 37.999055 -121.495334 178.803317
631 1 1 0.00 73.312686 0.957330 3.030559
632 1 1 0.00 77.145655 7.313685 3.030570
633 1 1 0.00 72.188378 -3.484360 9.091689
634 1 1 0.00 76.021347 2.871994 9.091699
635 1 1 0.00 71.064070 -7.926050 15.152818
636 1 1 0.00 74.897039 -1.569696 15.152828
637 1 1 0.00 69.939762 -12.367740 21.213947
638 1 1 0.00 73.772731 -6.011386 21.213957
639 1 1 0.00 68.815454 -16.809431 27.275076
640 1 1 0.00 72.648423 -10.453077 27.275087
641 1 1 0.00 67.691146 -21.251121 33.336205
642 1 1 0.00 71.524115 -14.894767 33.336216
643 1 1 0.00 66.566838 -25.692811 39.397335
644 1 1 0.00 70.399807 -19.336457 39.397345
645 1 1 0.00 65.442530 -30.134502 45.458464
646 1 1 0.00 69.275499 -23.778148 45.458474
647 1 1 0.00 64.318222 -34.576192 51.519593
648 1 1 0.00 68.151191 -28.219838 51.519603
649 1 1 0.00 63.193914 -39.017882 57.580722
650 1 1 0.00 67.026882 -32.661528 57.580733
651 1 1 0.00 62.069606 -43.459573 63.641852
652 1 1 0.00 65.902574 -37.103219 63.641862
653 1 1 0.00 60.945298 -47.901263 69.702981
654 1 1 0.00 64.778266 -41.544909 69.702991
655 1 1 0.00 59.820990 -52.342953 75.764110
656 1 1 0.00 63.653958 -45.986599 75.764120
657 1 1 0.00 58.696682 -56.784644 81.825239
658 1 1 0.00 62.529650 -50.428289 81.825250
659 1 1 0.00 57.572374 -61.226334 87.886368
660 1 1 0.00 61.405342 -54.869980 87.886379
661 1 1 0.00 56.448066 -65.668024 93.947498
662 1 1 0.00 60.281034 -59.311670 93.947508
663 1 1 0.00 55.323758 -70.109715 100.008627
664 1 1 0.00 59.156726 -63.753360 100.008637
665 1 1 0.00 54.199450 -74.551405 106.069756
666 1 1 0.00 58.032418 -68.195051 106.069766
667 1 1 0.00 53.075142 -78.993095 112.130885
668 1 1 0.00 56.908110 -72.636741 112.130896
669 1 1 0.00 51.950834 -83.434785 118.192014
670 1 1 0.00 55.783802 -77.078431 118.192025
671 1 1 0.00 50.826526 -87.876476 124.253144
672 1 1 0.00 54.659494 -81.520122 124.253154
673 1 1 0.00 49.702218 -92.318166 130.314273
674 1 1 0.00 53.535186 -85.961812 130.314283