LAMMPS Description BETA-hmx relaxed with LAMMPS at 0K,

 56 atoms
 56 bonds
 96 angles
 176 dihedrals
 16 impropers

 4 atom types
 4 bond types
 7 angle types
 7 dihedral types
 2 improper types

# Cell: monoclinic
 0.0 10.63470237 xlo xhi
 0.0 10.25419000 ylo yhi
 0.0 4.52296021 zlo zhi
 0.0 4.52966157 0.0 xy xz yz

Masses

 1 12.011 # C
 2 14.007 # N 
 3 15.999 # O
 4 1.0079 # H
        
Bond Coeffs

 1 995.05 1.23 # O-N
 2 495.85 1.36 # N-N
 3 336.05 1.44 # N-C
 4 320.8  1.09 # C-H
 
Angle Coeffs

 1 62.5 120.917 # O-N-O
 2 62.5 107.453 # O-N-N
 3 65.0 95.816  # N-N-C
 4 35.0 105.596 # C-N-C
 5 43.2 107.006 # N-C-H
 6 38.5 108.507 # H-C-H
 7 35.0 110.518 # N-C-N

Dihedral Coeffs

 1 4.225 -1 2 # O-N-N-C
 2 0.395 -1 4 # O-N-N-C
 3 0.002 -1 8 # O-N-N-C
 4 -0.08 -1 3 # H-C-N-C
 5 1.65  -1 1 # C-N-C-N
 6 -0.805 -1 2 # C-N-C-N
 7 0.055 -1 3 # C-N-C-N

Improper Coeffs

 1 4.0 0.0 # C-N-C-N
 2 44.65 0.0 # O-N-O-N

Atoms

1 1 1 -0.54 11.42670208 3.78876655 3.0997206
2 1 1 -0.54 8.974705 3.12596655 3.33224352
3 1 1 -0.54 9.10473028 1.33830655 1.4729014
4 1 1 -0.54 11.5567231 2.00112655 1.24035444
5 1 2 0.056375 10.01427636 4.00254655 2.79304028
6 1 2 0.056375 8.34617589 2.21120655 2.37307271
7 1 2 0.056375 10.517156 1.12454655 1.77958171
8 1 2 0.056375 12.18525645 2.91589655 2.199521
9 1 2 0.860625 9.71420765 4.71983655 1.61706774
10 1 2 0.860625 6.95668169 2.31995655 2.15624589
11 1 2 0.860625 10.81723885 0.40726655 2.95555424
12 1 2 0.860625 13.57475418 2.80713655 2.41635277
13 1 3 -0.4585 10.64289075 5.28945655 1.04000323
14 1 3 -0.4585 8.53639641 4.75344655 1.24723951
15 1 3 -0.4585 6.3175448 3.06386655 2.90243616
16 1 3 -0.4585 6.47605078 1.64480655 1.24252591
17 1 3 -0.4585 9.88856989 -0.16236345 3.53261874
18 1 3 -0.4585 11.99505785 0.37365655 3.32536196
19 1 3 -0.4585 14.21388542 2.06324655 1.67015826
20 1 3 -0.4585 14.05538086 3.48229655 3.33007982
21 1 4 0.27 11.90284221 4.77295655 3.13185969
22 1 4 0.27 11.48067881 3.40082655 4.11663482
23 1 4 0.27 8.24864397 3.76318655 3.84321324
24 1 4 0.27 9.42255128 2.51140655 4.11561987
25 1 4 0.27 9.05073586 1.72619655 0.45596951
26 1 4 0.27 8.6285923 0.35411655 1.44080685
27 1 4 0.27 11.10887186 2.61566655 0.4569689
28 1 4 0.27 12.28279093 1.36389655 0.72940621
29 2 1 -0.54 3.73767506 8.91587655 1.42323514
30 2 1 -0.54 6.18966698 8.25303655 1.19071555
31 2 1 -0.54 6.05961435 6.46540555 3.05007275
32 2 1 -0.54 3.60762151 7.12824655 3.2825985
33 2 2 0.056375 5.15009796 9.12962655 1.72992112
34 2 2 0.056375 6.81818287 7.33827655 2.14988729
35 2 2 0.056375 4.64719287 6.25165255 2.74339243
36 2 2 0.056375 2.97910513 8.04300655 2.32342202
37 2 2 0.860625 5.4501808 9.84693655 2.9058795
38 2 2 0.860625 8.20768132 7.44702655 2.36673249
39 2 2 0.860625 4.34710791 5.53434155 1.56743617
40 2 2 0.860625 1.58961093 7.93425655 2.10658672
41 2 3 -0.4585 4.52151521 10.41659655 3.48291657
42 2 3 -0.4585 6.62799839 9.88054655 3.27569995
43 2 3 -0.4585 8.84682035 8.19092655 1.62055848
44 2 3 -0.4585 8.68828538 6.77187155 3.28046804
45 2 3 -0.4585 5.27577547 4.96468555 0.99039854
46 2 3 -0.4585 3.16929314 5.50074155 1.19760582
47 2 3 -0.4585 0.95046482 7.19035655 2.85275366
48 2 3 -0.4585 1.10900192 8.60941655 1.19284197
49 2 4 0.27 3.26154626 9.90007655 1.39111301
50 2 4 0.27 3.68368702 8.52795655 0.4063181
51 2 4 0.27 6.91574096 8.89025655 0.67975876
52 2 4 0.27 5.74182373 7.63849655 0.4073281
53 2 4 0.27 6.11359957 6.85332655 4.06699262
54 2 4 0.27 6.5357474 5.48120755 3.08220478
55 2 4 0.27 4.05546639 7.74278655 4.06598475
56 2 4 0.27 2.88154775 6.49102155 3.79355691

Bonds

1 3 1 5
2 3 2 6
3 3 3 7
4 3 4 8
5 3 1 8
6 3 2 5
7 3 3 6
8 3 4 7
9 2 5 9
10 2 6 10
11 2 7 11
12 2 8 12
13 1 9 13
14 1 9 14
15 1 10 15
16 1 10 16
17 1 11 17
18 1 11 18
19 1 12 19
20 1 12 20
21 4 1 21
22 4 1 22
23 4 2 23
24 4 2 24
25 4 3 25
26 4 3 26
27 4 4 27
28 4 4 28
29 3 29 33
30 3 30 34
31 3 31 35
32 3 32 36
33 3 29 36
34 3 30 33
35 3 31 34
36 3 32 35
37 2 33 37
38 2 34 38
39 2 35 39
40 2 36 40
41 1 37 41
42 1 37 42
43 1 38 43
44 1 38 44
45 1 39 45
46 1 39 46
47 1 40 47
48 1 40 48
49 4 29 49
50 4 29 50
51 4 30 51
52 4 30 52
53 4 31 53
54 4 31 54
55 4 32 55
56 4 32 56

Angles

1 1 13 9 14
2 1 15 10 16
3 1 17 11 18
4 1 19 12 20
5 2 13 9 5
6 2 14 9 5
7 2 15 10 6
8 2 16 10 6
9 2 17 11 7
10 2 18 11 7
11 2 19 12 8
12 2 20 12 8
13 3 9 5 1
14 3 9 5 2
15 3 10 6 2
16 3 10 6 3
17 3 11 7 3
18 3 11 7 4
19 3 12 8 4
20 3 12 8 1
21 4 1 5 2
22 4 2 6 3
23 4 3 7 4
24 4 4 8 1
25 5 5 1 21
26 5 5 1 22
27 5 5 2 23
28 5 5 2 24
29 5 6 2 23
30 5 6 2 24
31 5 6 3 25
32 5 6 3 26
33 5 7 3 25
34 5 7 3 26
35 5 7 4 27
36 5 7 4 28
37 5 8 4 27
38 5 8 4 28
39 5 8 1 21
40 5 8 1 22
41 6 21 1 22
42 6 23 2 24
43 6 25 3 26
44 6 27 4 28
45 7 5 2 6
46 7 6 3 7
47 7 7 4 8
48 7 8 1 5
49 1 41 37 42
50 1 43 38 44
51 1 45 39 46
52 1 47 40 48
53 2 41 37 33
54 2 42 37 33
55 2 43 38 34
56 2 44 38 34
57 2 45 39 35
58 2 46 39 35
59 2 47 40 36
60 2 48 40 36
61 3 37 33 29
62 3 37 33 30
63 3 38 34 30
64 3 38 34 31
65 3 39 35 31
66 3 39 35 32
67 3 40 36 32
68 3 40 36 29
69 4 29 33 30
70 4 30 34 31
71 4 31 35 32
72 4 32 36 29
73 5 33 29 49
74 5 33 29 50
75 5 33 30 51
76 5 33 30 52
77 5 34 30 51
78 5 34 30 52
79 5 34 31 53
80 5 34 31 54
81 5 35 31 53
82 5 35 31 54
83 5 35 32 55
84 5 35 32 56
85 5 36 32 55
86 5 36 32 56
87 5 36 29 49
88 5 36 29 50
89 6 49 29 50
90 6 51 30 52
91 6 53 31 54
92 6 55 32 56
93 7 33 30 34
94 7 34 31 35
95 7 35 32 36
96 7 36 29 33

Dihedrals

1 1 13 9 5 1
2 1 13 9 5 2
3 1 14 9 5 1
4 1 14 9 5 2
5 1 15 10 6 2
6 1 15 10 6 3
7 1 16 10 6 2
8 1 16 10 6 3
9 1 17 11 7 3
10 1 17 11 7 4
11 1 18 11 7 3
12 1 18 11 7 4
13 1 19 12 8 4
14 1 19 12 8 1
15 1 20 12 8 4
16 1 20 12 8 1
17 2 13 9 5 1
18 2 13 9 5 2
19 2 14 9 5 1
20 2 14 9 5 2
21 2 15 10 6 2
22 2 15 10 6 3
23 2 16 10 6 2
24 2 16 10 6 3
25 2 17 11 7 3
26 2 17 11 7 4
27 2 18 11 7 3
28 2 18 11 7 4
29 2 19 12 8 4
30 2 19 12 8 1
31 2 20 12 8 4
32 2 20 12 8 1
33 3 13 9 5 1
34 3 13 9 5 2
35 3 14 9 5 1
36 3 14 9 5 2
37 3 15 10 6 2
38 3 15 10 6 3
39 3 16 10 6 2
40 3 16 10 6 3
41 3 17 11 7 3
42 3 17 11 7 4
43 3 18 11 7 3
44 3 18 11 7 4
45 3 19 12 8 4
46 3 19 12 8 1
47 3 20 12 8 4
48 3 20 12 8 1
49 4 21 1 8 4
50 4 21 1 5 2
51 4 22 1 8 4
52 4 22 1 5 2
53 4 23 2 5 1
54 4 23 2 6 3
55 4 24 2 5 1
56 4 24 2 6 3
57 4 25 3 6 2
58 4 25 3 7 4
59 4 26 3 6 2
60 4 26 3 7 4
61 4 27 4 7 3
62 4 27 4 8 1
63 4 28 4 7 3
64 4 28 4 8 1
65 5 1 5 2 6
66 5 2 6 3 7
67 5 3 7 4 8
68 5 4 8 1 5
69 5 1 8 4 7
70 5 4 7 3 6
71 5 3 6 2 5
72 5 2 5 1 8
73 6 1 5 2 6
74 6 2 6 3 7
75 6 3 7 4 8
76 6 4 8 1 5
77 6 1 8 4 7
78 6 4 7 3 6
79 6 3 6 2 5
80 6 2 5 1 8
81 7 1 5 2 6
82 7 2 6 3 7
83 7 3 7 4 8
84 7 4 8 1 5
85 7 1 8 4 7
86 7 4 7 3 6
87 7 3 6 2 5
88 7 2 5 1 8
89 1 41 37 33 29
90 1 41 37 33 30
91 1 42 37 33 29
92 1 42 37 33 30
93 1 43 38 34 30
94 1 43 38 34 31
95 1 44 38 34 30
96 1 44 38 34 31
97 1 45 39 35 31
98 1 45 39 35 32
99 1 46 39 35 31
100 1 46 39 35 32
101 1 47 40 36 32
102 1 47 40 36 29
103 1 48 40 36 32
104 1 48 40 36 29
105 2 41 37 33 29
106 2 41 37 33 30
107 2 42 37 33 29
108 2 42 37 33 30
109 2 43 38 34 30
110 2 43 38 34 31
111 2 44 38 34 30
112 2 44 38 34 31
113 2 45 39 35 31
114 2 45 39 35 32
115 2 46 39 35 31
116 2 46 39 35 32
117 2 47 40 36 32
118 2 47 40 36 29
119 2 48 40 36 32
120 2 48 40 36 29
121 3 41 37 33 29
122 3 41 37 33 30
123 3 42 37 33 29
124 3 42 37 33 30
125 3 43 38 34 30
126 3 43 38 34 31
127 3 44 38 34 30
128 3 44 38 34 31
129 3 45 39 35 31
130 3 45 39 35 32
131 3 46 39 35 31
132 3 46 39 35 32
133 3 47 40 36 32
134 3 47 40 36 29
135 3 48 40 36 32
136 3 48 40 36 29
137 4 49 29 36 32
138 4 49 29 33 30
139 4 50 29 36 32
140 4 50 29 33 30
141 4 51 30 33 29
142 4 51 30 34 31
143 4 52 30 33 29
144 4 52 30 34 31
145 4 53 31 34 30
146 4 53 31 35 32
147 4 54 31 34 30
148 4 54 31 35 32
149 4 55 32 35 31
150 4 55 32 36 29
151 4 56 32 35 31
152 4 56 32 36 29
153 5 29 33 30 34
154 5 30 34 31 35
155 5 31 35 32 36
156 5 32 36 29 33
157 5 29 36 32 35
158 5 32 35 31 34
159 5 31 34 30 33
160 5 30 33 29 36
161 6 29 33 30 34
162 6 30 34 31 35
163 6 31 35 32 36
164 6 32 36 29 33
165 6 29 36 32 35
166 6 32 35 31 34
167 6 31 34 30 33
168 6 30 33 29 36
169 7 29 33 30 34
170 7 30 34 31 35
171 7 31 35 32 36
172 7 32 36 29 33
173 7 29 36 32 35
174 7 32 35 31 34
175 7 31 34 30 33
176 7 30 33 29 36

Impropers

1 1 5 1 2 9
2 1 6 2 3 10
3 1 7 3 4 11
4 1 8 4 1 12
5 2 5 13 14 9
6 2 6 15 16 10
7 2 7 17 18 11
8 2 8 19 20 12
9 1 33 29 30 37
10 1 34 30 31 38
11 1 35 31 32 39
12 1 36 32 29 40
13 2 33 41 42 37
14 2 34 43 44 38
15 2 35 45 46 39
16 2 36 47 48 40
