LAMMPS Description BETA-hmx

 56 atoms
 56 bonds
 96 angles
 176 dihedrals
 16 impropers

 4 atom types
 4 bond types
 7 angle types
 7 dihedral types
 2 improper types

# Cell: monoclinic
      0.00000000     10.73466689    xlo xhi
      0.00000000     10.25412000    ylo yhi
      0.00000000      4.57923560    zlo zhi
     -0.00000000      4.67161733      0.00000000    xy xz yz

Masses

 1 12.011 # C
 2 14.007 # N 
 3 15.999 # O
 4 1.0079 # H
        
Bond Coeffs

 1 995.05 1.23 # O-N
 2 495.85 1.36 # N-N
 3 336.05 1.44 # N-C
 4 320.8  1.09 # C-H
 
Angle Coeffs

 1 62.5 120.917 # O-N-O
 2 62.5 107.453 # O-N-N
 3 65.0 95.816  # N-N-C
 4 35.0 105.596 # C-N-C
 5 43.2 107.006 # N-C-H
 6 38.5 108.507 # H-C-H
 7 35.0 110.518 # N-C-N

Dihedral Coeffs

 1 4.225 -1 2 # O-N-N-C
 2 0.395 -1 4 # O-N-N-C
 3 0.002 -1 8 # O-N-N-C
 4 -0.08 -1 3 # H-C-N-C
 5 1.65  -1 1 # C-N-C-N
 6 -0.805 -1 2 # C-N-C-N
 7 0.055 -1 3 # C-N-C-N

Improper Coeffs

 1 4.0 0.0 # C-N-C-N
 2 44.65 0.0 # O-N-O-N

Atoms

 1 1 1 -0.540000  0.82058349  3.78875624  3.09228557
 2 1 1 -0.540000 -1.62916627  3.12592624  3.34744750
 3 1 1 -0.540000 -1.51627378  1.33829624  1.48696085
 4 1 1 -0.540000  0.93346883  2.00112624  1.23179191
 5 1 2  0.056375 -0.59462458  4.00250624  2.79865589
 6 1 2  0.056375 -2.26650831  2.21114624  2.39412851
 7 1 2  0.056375 -0.10107986  1.12454624  1.78059067
 8 1 2  0.056375  1.57081101  2.91590624  2.18512504
 9 1 2  0.860625 -0.90554599  4.71979624  1.62550077
10 1 2  0.860625 -3.65794536  2.31989624  2.19011799
11 1 2  0.860625  0.20983441  0.40725624  2.95373878
12 1 2  0.860625  2.96225507  2.80715624  2.38912842
13 1 3 -0.458500  0.01775527  5.28942624  1.03989601
14 1 3 -0.458500 -2.08672001  4.75338624  1.26655590
15 1 3 -0.458500 -4.29017956  3.06380624  2.94216244
16 1 3 -0.458500 -4.14697002  1.64475624  1.28084366
17 1 3 -0.458500 -0.71345985 -0.16238376  3.53933640
18 1 3 -0.458500  1.39102257  0.37365624  3.31268352
19 1 3 -0.458500  3.59448926  2.06325624  1.63708397
20 1 3 -0.458500  3.45127972  3.48230624  3.29840275
21 1 4  0.270000  1.29697927  4.77296624  3.12002839
22 1 4  0.270000  0.88395985  3.40082624  4.10865728
23 1 4  0.270000 -2.35048648  3.76314624  3.86508008
24 1 4  0.270000 -1.17411023  2.51138624  4.12667820
25 1 4  0.270000 -1.57964301  1.72624624  0.47059613
26 1 4  0.270000 -1.99266957  0.35409624  1.45921803
27 1 4  0.270000  0.47841993  2.61566624  0.45256821
28 1 4  0.270000  1.65479619  1.36390624  0.71416633
29 2 1 -0.540000  3.85101003  8.91578624  1.48696790
30 2 1 -0.540000  6.30076678  8.25300624  1.23179882
31 2 1 -0.540000  6.18792358  6.46534624  3.09226377
32 2 1 -0.540000  3.73818839  7.12817624  3.34746799
33 2 2  0.056375  5.26620381  9.12957624  1.78058357
34 2 2  0.056375  6.93813024  7.33826624  2.18513881
35 2 2  0.056375  4.77272994  6.25159624  2.79866223
36 2 2  0.056375  3.10081121  8.04294624  2.39417056
37 2 2  0.860625  5.57711079  9.84690624  2.95371055
38 2 2  0.860625  8.32958074  7.44698624  2.38907848
39 2 2  0.860625  4.46179425  5.53433624  1.62549312
40 2 2  0.860625  1.70936729  7.93415624  2.19018132
41 2 3 -0.458500  4.65379511 10.41654624  3.53928717
42 2 3 -0.458500  6.75829868  9.88054624  3.31262700
43 2 3 -0.458500  8.96178637  8.19087624  1.63700603
44 2 3 -0.458500  8.81864025  6.77180624  3.29830296
45 2 3 -0.458500  5.38508794  4.96472624  1.03983893
46 2 3 -0.458500  3.28060622  5.50074624  1.26656252
47 2 3 -0.458500  1.07716152  7.19025624  2.94223964
48 2 3 -0.458500  1.22032150  8.60928624  1.28091428
49 2 4  0.270000  3.37458568  9.89997624  1.45919708
50 2 4  0.270000  3.78764094  8.52780624  0.47061733
51 2 4  0.270000  7.02208699  8.89024624  0.71416624
52 2 4  0.270000  5.84573203  7.63844624  0.45257498
53 2 4  0.270000  6.25132137  6.85323624  4.10865648
54 2 4  0.270000  6.66434708  5.48115624  3.11994974
55 2 4  0.270000  4.19327957  7.74271624  4.12667712
56 2 4  0.270000  3.01688974  6.49094624  3.86513571

Bonds

1 3 1 5
2 3 2 6
3 3 3 7
4 3 4 8
5 3 1 8
6 3 2 5
7 3 3 6
8 3 4 7
9 2 5 9
10 2 6 10
11 2 7 11
12 2 8 12
13 1 9 13
14 1 9 14
15 1 10 15
16 1 10 16
17 1 11 17
18 1 11 18
19 1 12 19
20 1 12 20
21 4 1 21
22 4 1 22
23 4 2 23
24 4 2 24
25 4 3 25
26 4 3 26
27 4 4 27
28 4 4 28
29 3 29 33
30 3 30 34
31 3 31 35
32 3 32 36
33 3 29 36
34 3 30 33
35 3 31 34
36 3 32 35
37 2 33 37
38 2 34 38
39 2 35 39
40 2 36 40
41 1 37 41
42 1 37 42
43 1 38 43
44 1 38 44
45 1 39 45
46 1 39 46
47 1 40 47
48 1 40 48
49 4 29 49
50 4 29 50
51 4 30 51
52 4 30 52
53 4 31 53
54 4 31 54
55 4 32 55
56 4 32 56

Angles

1 1 13 9 14
2 1 15 10 16
3 1 17 11 18
4 1 19 12 20
5 2 13 9 5
6 2 14 9 5
7 2 15 10 6
8 2 16 10 6
9 2 17 11 7
10 2 18 11 7
11 2 19 12 8
12 2 20 12 8
13 3 9 5 1
14 3 9 5 2
15 3 10 6 2
16 3 10 6 3
17 3 11 7 3
18 3 11 7 4
19 3 12 8 4
20 3 12 8 1
21 4 1 5 2
22 4 2 6 3
23 4 3 7 4
24 4 4 8 1
25 5 5 1 21
26 5 5 1 22
27 5 5 2 23
28 5 5 2 24
29 5 6 2 23
30 5 6 2 24
31 5 6 3 25
32 5 6 3 26
33 5 7 3 25
34 5 7 3 26
35 5 7 4 27
36 5 7 4 28
37 5 8 4 27
38 5 8 4 28
39 5 8 1 21
40 5 8 1 22
41 6 21 1 22
42 6 23 2 24
43 6 25 3 26
44 6 27 4 28
45 7 5 2 6
46 7 6 3 7
47 7 7 4 8
48 7 8 1 5
49 1 41 37 42
50 1 43 38 44
51 1 45 39 46
52 1 47 40 48
53 2 41 37 33
54 2 42 37 33
55 2 43 38 34
56 2 44 38 34
57 2 45 39 35
58 2 46 39 35
59 2 47 40 36
60 2 48 40 36
61 3 37 33 29
62 3 37 33 30
63 3 38 34 30
64 3 38 34 31
65 3 39 35 31
66 3 39 35 32
67 3 40 36 32
68 3 40 36 29
69 4 29 33 30
70 4 30 34 31
71 4 31 35 32
72 4 32 36 29
73 5 33 29 49
74 5 33 29 50
75 5 33 30 51
76 5 33 30 52
77 5 34 30 51
78 5 34 30 52
79 5 34 31 53
80 5 34 31 54
81 5 35 31 53
82 5 35 31 54
83 5 35 32 55
84 5 35 32 56
85 5 36 32 55
86 5 36 32 56
87 5 36 29 49
88 5 36 29 50
89 6 49 29 50
90 6 51 30 52
91 6 53 31 54
92 6 55 32 56
93 7 33 30 34
94 7 34 31 35
95 7 35 32 36
96 7 36 29 33

Dihedrals

1 1 13 9 5 1
2 1 13 9 5 2
3 1 14 9 5 1
4 1 14 9 5 2
5 1 15 10 6 2
6 1 15 10 6 3
7 1 16 10 6 2
8 1 16 10 6 3
9 1 17 11 7 3
10 1 17 11 7 4
11 1 18 11 7 3
12 1 18 11 7 4
13 1 19 12 8 4
14 1 19 12 8 1
15 1 20 12 8 4
16 1 20 12 8 1
17 2 13 9 5 1
18 2 13 9 5 2
19 2 14 9 5 1
20 2 14 9 5 2
21 2 15 10 6 2
22 2 15 10 6 3
23 2 16 10 6 2
24 2 16 10 6 3
25 2 17 11 7 3
26 2 17 11 7 4
27 2 18 11 7 3
28 2 18 11 7 4
29 2 19 12 8 4
30 2 19 12 8 1
31 2 20 12 8 4
32 2 20 12 8 1
33 3 13 9 5 1
34 3 13 9 5 2
35 3 14 9 5 1
36 3 14 9 5 2
37 3 15 10 6 2
38 3 15 10 6 3
39 3 16 10 6 2
40 3 16 10 6 3
41 3 17 11 7 3
42 3 17 11 7 4
43 3 18 11 7 3
44 3 18 11 7 4
45 3 19 12 8 4
46 3 19 12 8 1
47 3 20 12 8 4
48 3 20 12 8 1
49 4 21 1 8 4
50 4 21 1 5 2
51 4 22 1 8 4
52 4 22 1 5 2
53 4 23 2 5 1
54 4 23 2 6 3
55 4 24 2 5 1
56 4 24 2 6 3
57 4 25 3 6 2
58 4 25 3 7 4
59 4 26 3 6 2
60 4 26 3 7 4
61 4 27 4 7 3
62 4 27 4 8 1
63 4 28 4 7 3
64 4 28 4 8 1
65 5 1 5 2 6
66 5 2 6 3 7
67 5 3 7 4 8
68 5 4 8 1 5
69 5 1 8 4 7
70 5 4 7 3 6
71 5 3 6 2 5
72 5 2 5 1 8
73 6 1 5 2 6
74 6 2 6 3 7
75 6 3 7 4 8
76 6 4 8 1 5
77 6 1 8 4 7
78 6 4 7 3 6
79 6 3 6 2 5
80 6 2 5 1 8
81 7 1 5 2 6
82 7 2 6 3 7
83 7 3 7 4 8
84 7 4 8 1 5
85 7 1 8 4 7
86 7 4 7 3 6
87 7 3 6 2 5
88 7 2 5 1 8
89 1 41 37 33 29
90 1 41 37 33 30
91 1 42 37 33 29
92 1 42 37 33 30
93 1 43 38 34 30
94 1 43 38 34 31
95 1 44 38 34 30
96 1 44 38 34 31
97 1 45 39 35 31
98 1 45 39 35 32
99 1 46 39 35 31
100 1 46 39 35 32
101 1 47 40 36 32
102 1 47 40 36 29
103 1 48 40 36 32
104 1 48 40 36 29
105 2 41 37 33 29
106 2 41 37 33 30
107 2 42 37 33 29
108 2 42 37 33 30
109 2 43 38 34 30
110 2 43 38 34 31
111 2 44 38 34 30
112 2 44 38 34 31
113 2 45 39 35 31
114 2 45 39 35 32
115 2 46 39 35 31
116 2 46 39 35 32
117 2 47 40 36 32
118 2 47 40 36 29
119 2 48 40 36 32
120 2 48 40 36 29
121 3 41 37 33 29
122 3 41 37 33 30
123 3 42 37 33 29
124 3 42 37 33 30
125 3 43 38 34 30
126 3 43 38 34 31
127 3 44 38 34 30
128 3 44 38 34 31
129 3 45 39 35 31
130 3 45 39 35 32
131 3 46 39 35 31
132 3 46 39 35 32
133 3 47 40 36 32
134 3 47 40 36 29
135 3 48 40 36 32
136 3 48 40 36 29
137 4 49 29 36 32
138 4 49 29 33 30
139 4 50 29 36 32
140 4 50 29 33 30
141 4 51 30 33 29
142 4 51 30 34 31
143 4 52 30 33 29
144 4 52 30 34 31
145 4 53 31 34 30
146 4 53 31 35 32
147 4 54 31 34 30
148 4 54 31 35 32
149 4 55 32 35 31
150 4 55 32 36 29
151 4 56 32 35 31
152 4 56 32 36 29
153 5 29 33 30 34
154 5 30 34 31 35
155 5 31 35 32 36
156 5 32 36 29 33
157 5 29 36 32 35
158 5 32 35 31 34
159 5 31 34 30 33
160 5 30 33 29 36
161 6 29 33 30 34
162 6 30 34 31 35
163 6 31 35 32 36
164 6 32 36 29 33
165 6 29 36 32 35
166 6 32 35 31 34
167 6 31 34 30 33
168 6 30 33 29 36
169 7 29 33 30 34
170 7 30 34 31 35
171 7 31 35 32 36
172 7 32 36 29 33
173 7 29 36 32 35
174 7 32 35 31 34
175 7 31 34 30 33
176 7 30 33 29 36

Impropers

1 1 5 1 2 9
2 1 6 2 3 10
3 1 7 3 4 11
4 1 8 4 1 12
5 2 5 13 14 9
6 2 6 15 16 10
7 2 7 17 18 11
8 2 8 19 20 12
9 1 33 29 30 37
10 1 34 30 31 38
11 1 35 31 32 39
12 1 36 32 29 40
13 2 33 41 42 37
14 2 34 43 44 38
15 2 35 45 46 39
16 2 36 47 48 40
